<?xml version="1.0"?>
<VTKFile type="UnstructuredGrid" version="0.1" byte_order="LittleEndian">
<!--This file was created by meshio v5.2.2-->
<UnstructuredGrid>
<Piece NumberOfPoints="7" NumberOfCells="5">
<Points>
<DataArray type="Float64" Name="Points" NumberOfComponents="3" format="ascii">
0.00000000000e+00
1.00000000000e+00
0.00000000000e+00
2.00000000000e+00
1.00000000000e+00
0.00000000000e+00
2.00000000000e+00
0.00000000000e+00
0.00000000000e+00
1.00000000000e+00
1.00000000000e+00
0.00000000000e+00
0.00000000000e+00
0.00000000000e+00
0.00000000000e+00
5.00000000000e-01
5.00000000000e-01
0.00000000000e+00
1.00000000000e+00
0.00000000000e+00
0.00000000000e+00

</DataArray>
</Points>
<Cells>
<DataArray type="Int64" Name="connectivity" format="ascii">
4
6
5
3
0
5
6
3
5
0
4
5
6
2
1
3

</DataArray>
<DataArray type="Int64" Name="offsets" format="ascii">
3
6
9
12
16

</DataArray>
<DataArray type="Int64" Name="types" format="ascii">
5
5
5
5
9

</DataArray>
</Cells>
<PointData>
<DataArray type="Int64" Name="point_index" format="ascii">
3
6
5
2
0
4
1

</DataArray>
<DataArray type="Float64" Name="function" format="ascii">
0.00000000000e+00
-0.00000000000e+00
-1.00000000000e+00
0.00000000000e+00
1.00000000000e+00
2.50000000000e-01
0.00000000000e+00

</DataArray>
</PointData>
<CellData>
<DataArray type="Int64" Name="cell_index" format="ascii">
0
2
1
3
4

</DataArray>
</CellData>
</Piece>
</UnstructuredGrid>
</VTKFile>
