<?xml version="1.0"?>
<VTKFile type="UnstructuredGrid" version="0.1" byte_order="LittleEndian">
<!--This file was created by meshio v5.3.0-->
<UnstructuredGrid>
<Piece NumberOfPoints="7" NumberOfCells="5">
<Points>
<DataArray type="Float64" Name="Points" NumberOfComponents="3" format="ascii">
1.34364244112e-10
1.00000000085e+00
7.63774618977e-10
2.00000000026e+00
1.00000000050e+00
4.49491064789e-10
2.00000000065e+00
7.88723351136e-10
9.38595867742e-11
1.00000000003e+00
1.00000000084e+00
4.32767067905e-10
7.62280082458e-10
2.10605335111e-12
4.45387194055e-10
5.00000000722e-01
5.00000000229e-01
9.45270695554e-10
1.00000000090e+00
3.05899830336e-11
2.54458609935e-11

</DataArray>
</Points>
<Cells>
<DataArray type="Int64" Name="connectivity" format="ascii">
4
6
5
3
0
5
6
3
5
0
4
5
6
2
1
3

</DataArray>
<DataArray type="Int64" Name="offsets" format="ascii">
3
6
9
12
16

</DataArray>
<DataArray type="Int64" Name="types" format="ascii">
5
5
5
5
9

</DataArray>
</Cells>
<PointData>
<DataArray type="Int64" Name="point_index" format="ascii">
3
6
5
2
0
4
1

</DataArray>
<DataArray type="Float64" Name="function" format="ascii">
0.00000000000e+00
-0.00000000000e+00
-1.00000000000e+00
0.00000000000e+00
1.00000000000e+00
2.50000000000e-01
0.00000000000e+00

</DataArray>
</PointData>
<CellData>
<DataArray type="Int64" Name="cell_index" format="ascii">
0
2
1
3
4

</DataArray>
<DataArray type="Float64" Name="cell_func_values" format="ascii">
4.16666666667e-01
8.33333333333e-02
8.33333333333e-02
4.16666666667e-01
-2.50000000000e-01

</DataArray>
</CellData>
</Piece>
</UnstructuredGrid>
</VTKFile>
