<?xml version="1.0"?>
<VTKFile type="RectilinearGrid" version="2.2" byte_order="LittleEndian" header_type="UInt64">
  <RectilinearGrid WholeExtent="0 4 0 4 0 0">
    <FieldData>
      <DataArray Name="literal" format="ascii" type="String" NumberOfTuples="1">
          115 111 109 101 95 108 105 116 101 114 97 108 95 116 101 
          120 116 0 
      </DataArray>
      <DataArray Name="numbers" format="ascii" NumberOfTuples="4" type="Int32" NumberOfComponents="1">
          1 2 3 4 
      </DataArray>
      <DataArray Name="string" format="ascii" type="String" NumberOfTuples="1">
          115 111 109 101 95 115 116 114 105 110 103 95 116 101 120 
          116 0 
      </DataArray>
    </FieldData>
    <Piece Extent="0 2 2 4 0 0">
      <PointData>
        <DataArray Name="pscalar" type="Float64" NumberOfComponents="1" format="ascii">
          0 2.59034723999926 4.54648713412841 0 0.339132210088926 0.595233027498767 -0 -1.99511421250049 -3.50175488374015 
        </DataArray>
        <DataArray Name="pscalar_custom_prec" type="Float32" NumberOfComponents="1" format="ascii">
          0 2.59035 4.54649 0 0.339132 0.595233 -0 -1.99511 -3.50175 
        </DataArray>
        <DataArray Name="ptensor" type="Float64" NumberOfComponents="9" format="ascii">
          0 0 0 0 0 0 0 0 0 2.59034723999926 2.59034723999926 0 2.59034723999926 2.59034723999926 0 
          0 0 0 4.54648713412841 4.54648713412841 0 4.54648713412841 4.54648713412841 0 0 0 0 0 0 0 
          0 0 0 0 0 0 0.339132210088926 0.339132210088926 0 0.339132210088926 0.339132210088926 0 0 0 0 
          0.595233027498767 0.595233027498767 0 0.595233027498767 0.595233027498767 0 0 0 0 -0 -0 0 -0 -0 0 
          0 0 0 -1.99511421250049 -1.99511421250049 0 -1.99511421250049 -1.99511421250049 0 0 0 0 -3.50175488374015 -3.50175488374015 0 
          -3.50175488374015 -3.50175488374015 0 0 0 0 
        </DataArray>
        <DataArray Name="ptensor_custom_prec" type="Float32" NumberOfComponents="9" format="ascii">
          0 0 0 0 0 0 0 0 0 2.59035 2.59035 0 2.59035 2.59035 0 
          0 0 0 4.54649 4.54649 0 4.54649 4.54649 0 0 0 0 0 0 0 
          0 0 0 0 0 0 0.339132 0.339132 0 0.339132 0.339132 0 0 0 0 
          0.595233 0.595233 0 0.595233 0.595233 0 0 0 0 -0 -0 0 -0 -0 0 
          0 0 0 -1.99511 -1.99511 0 -1.99511 -1.99511 0 0 0 0 -3.50175 -3.50175 0 
          -3.50175 -3.50175 0 0 0 0 
        </DataArray>
        <DataArray Name="pvector" type="Float64" NumberOfComponents="3" format="ascii">
          0 0 0 2.59034723999926 2.59034723999926 0 4.54648713412841 4.54648713412841 0 0 0 0 0.339132210088926 0.339132210088926 0 
          0.595233027498767 0.595233027498767 0 -0 -0 0 -1.99511421250049 -1.99511421250049 0 -3.50175488374015 -3.50175488374015 0 
        </DataArray>
        <DataArray Name="pvector_custom_prec" type="Float32" NumberOfComponents="3" format="ascii">
          0 0 0 2.59035 2.59035 0 4.54649 4.54649 0 0 0 0 0.339132 0.339132 0 
          0.595233 0.595233 0 -0 -0 0 -1.99511 -1.99511 0 -3.50175 -3.50175 0 
        </DataArray>
      </PointData>
      <CellData>
        <DataArray Name="cscalar" type="Float64" NumberOfComponents="1" format="ascii">
          0.78012000898079 2.14935944110739 -0.440987798891864 -1.2149942035197 
        </DataArray>
        <DataArray Name="cscalar_custom_prec" type="Float32" NumberOfComponents="1" format="ascii">
          0.78012 2.14936 -0.440988 -1.21499 
        </DataArray>
        <DataArray Name="ctensor" type="Float64" NumberOfComponents="9" format="ascii">
          0.78012000898079 0.78012000898079 0 0.78012000898079 0.78012000898079 0 0 0 0 2.14935944110739 2.14935944110739 0 2.14935944110739 2.14935944110739 0 
          0 0 0 -0.440987798891864 -0.440987798891864 0 -0.440987798891864 -0.440987798891864 0 0 0 0 -1.2149942035197 -1.2149942035197 0 
          -1.2149942035197 -1.2149942035197 0 0 0 0 
        </DataArray>
        <DataArray Name="ctensor_custom_prec" type="Float32" NumberOfComponents="9" format="ascii">
          0.78012 0.78012 0 0.78012 0.78012 0 0 0 0 2.14936 2.14936 0 2.14936 2.14936 0 
          0 0 0 -0.440988 -0.440988 0 -0.440988 -0.440988 0 0 0 0 -1.21499 -1.21499 0 
          -1.21499 -1.21499 0 0 0 0 
        </DataArray>
        <DataArray Name="cvector" type="Float64" NumberOfComponents="3" format="ascii">
          0.78012000898079 0.78012000898079 0 2.14935944110739 2.14935944110739 0 -0.440987798891864 -0.440987798891864 0 -1.2149942035197 -1.2149942035197 0 
        </DataArray>
        <DataArray Name="cvector_custom_prec" type="Float32" NumberOfComponents="3" format="ascii">
          0.78012 0.78012 0 2.14936 2.14936 0 -0.440988 -0.440988 0 -1.21499 -1.21499 0 
        </DataArray>
      </CellData>
      <Coordinates>
        <DataArray Name="X_0" type="Float64" NumberOfComponents="1" format="ascii">
          0 0.5 1 
        </DataArray>
        <DataArray Name="X_1" type="Float64" NumberOfComponents="1" format="ascii">
          1 1.5 2 
        </DataArray>
        <DataArray Name="X_2" type="Float64" NumberOfComponents="1" format="ascii">

        </DataArray>
      </Coordinates>
    </Piece>
  </RectilinearGrid>
</VTKFile>