<?xml version="1.0"?>
<VTKFile type="RectilinearGrid" version="2.2" byte_order="LittleEndian" header_type="UInt64">
  <RectilinearGrid WholeExtent="0 4 0 4 0 0">
    <FieldData>
      <DataArray Name="literal" format="ascii" type="String" NumberOfTuples="1">
          115 111 109 101 95 108 105 116 101 114 97 108 95 116 101 
          120 116 0 
      </DataArray>
      <DataArray Name="numbers" format="ascii" NumberOfTuples="4" type="Int32" NumberOfComponents="1">
          1 2 3 4 
      </DataArray>
      <DataArray Name="string" format="ascii" type="String" NumberOfTuples="1">
          115 111 109 101 95 115 116 114 105 110 103 95 116 101 120 
          116 0 
      </DataArray>
    </FieldData>
    <Piece Extent="2 4 2 4 0 0">
      <PointData>
        <DataArray Name="pscalar" type="Float64" NumberOfComponents="1" format="ascii">
          4.54648713412841 5.3894884135408 4.91295496433882 0.595233027498767 0.705600040299336 0.643211554572916 -3.50175488374015 -4.15104383146911 -3.78401247653964 
        </DataArray>
        <DataArray Name="pscalar_custom_prec" type="Float32" NumberOfComponents="1" format="ascii">
          4.54649 5.38949 4.91295 0.595233 0.7056 0.643212 -3.50175 -4.15104 -3.78401 
        </DataArray>
        <DataArray Name="ptensor" type="Float64" NumberOfComponents="9" format="ascii">
          4.54648713412841 4.54648713412841 0 4.54648713412841 4.54648713412841 0 0 0 0 5.3894884135408 5.3894884135408 0 5.3894884135408 5.3894884135408 0 
          0 0 0 4.91295496433882 4.91295496433882 0 4.91295496433882 4.91295496433882 0 0 0 0 0.595233027498767 0.595233027498767 0 
          0.595233027498767 0.595233027498767 0 0 0 0 0.705600040299336 0.705600040299336 0 0.705600040299336 0.705600040299336 0 0 0 0 
          0.643211554572916 0.643211554572916 0 0.643211554572916 0.643211554572916 0 0 0 0 -3.50175488374015 -3.50175488374015 0 -3.50175488374015 -3.50175488374015 0 
          0 0 0 -4.15104383146911 -4.15104383146911 0 -4.15104383146911 -4.15104383146911 0 0 0 0 -3.78401247653964 -3.78401247653964 0 
          -3.78401247653964 -3.78401247653964 0 0 0 0 
        </DataArray>
        <DataArray Name="ptensor_custom_prec" type="Float32" NumberOfComponents="9" format="ascii">
          4.54649 4.54649 0 4.54649 4.54649 0 0 0 0 5.38949 5.38949 0 5.38949 5.38949 0 
          0 0 0 4.91295 4.91295 0 4.91295 4.91295 0 0 0 0 0.595233 0.595233 0 
          0.595233 0.595233 0 0 0 0 0.7056 0.7056 0 0.7056 0.7056 0 0 0 0 
          0.643212 0.643212 0 0.643212 0.643212 0 0 0 0 -3.50175 -3.50175 0 -3.50175 -3.50175 0 
          0 0 0 -4.15104 -4.15104 0 -4.15104 -4.15104 0 0 0 0 -3.78401 -3.78401 0 
          -3.78401 -3.78401 0 0 0 0 
        </DataArray>
        <DataArray Name="pvector" type="Float64" NumberOfComponents="3" format="ascii">
          4.54648713412841 4.54648713412841 0 5.3894884135408 5.3894884135408 0 4.91295496433882 4.91295496433882 0 0.595233027498767 0.595233027498767 0 0.705600040299336 0.705600040299336 0 
          0.643211554572916 0.643211554572916 0 -3.50175488374015 -3.50175488374015 0 -4.15104383146911 -4.15104383146911 0 -3.78401247653964 -3.78401247653964 0 
        </DataArray>
        <DataArray Name="pvector_custom_prec" type="Float32" NumberOfComponents="3" format="ascii">
          4.54649 4.54649 0 5.38949 5.38949 0 4.91295 4.91295 0 0.595233 0.595233 0 0.7056 0.7056 0 
          0.643212 0.643212 0 -3.50175 -3.50175 0 -4.15104 -4.15104 0 -3.78401 -3.78401 0 
        </DataArray>
      </PointData>
      <CellData>
        <DataArray Name="cscalar" type="Float64" NumberOfComponents="1" format="ascii">
          2.99236072051978 3.10272773332035 -1.69152765272168 -1.7539161384481 
        </DataArray>
        <DataArray Name="cscalar_custom_prec" type="Float32" NumberOfComponents="1" format="ascii">
          2.99236 3.10273 -1.69153 -1.75392 
        </DataArray>
        <DataArray Name="ctensor" type="Float64" NumberOfComponents="9" format="ascii">
          2.99236072051978 2.99236072051978 0 2.99236072051978 2.99236072051978 0 0 0 0 3.10272773332035 3.10272773332035 0 3.10272773332035 3.10272773332035 0 
          0 0 0 -1.69152765272168 -1.69152765272168 0 -1.69152765272168 -1.69152765272168 0 0 0 0 -1.7539161384481 -1.7539161384481 0 
          -1.7539161384481 -1.7539161384481 0 0 0 0 
        </DataArray>
        <DataArray Name="ctensor_custom_prec" type="Float32" NumberOfComponents="9" format="ascii">
          2.99236 2.99236 0 2.99236 2.99236 0 0 0 0 3.10273 3.10273 0 3.10273 3.10273 0 
          0 0 0 -1.69153 -1.69153 0 -1.69153 -1.69153 0 0 0 0 -1.75392 -1.75392 0 
          -1.75392 -1.75392 0 0 0 0 
        </DataArray>
        <DataArray Name="cvector" type="Float64" NumberOfComponents="3" format="ascii">
          2.99236072051978 2.99236072051978 0 3.10272773332035 3.10272773332035 0 -1.69152765272168 -1.69152765272168 0 -1.7539161384481 -1.7539161384481 0 
        </DataArray>
        <DataArray Name="cvector_custom_prec" type="Float32" NumberOfComponents="3" format="ascii">
          2.99236 2.99236 0 3.10273 3.10273 0 -1.69153 -1.69153 0 -1.75392 -1.75392 0 
        </DataArray>
      </CellData>
      <Coordinates>
        <DataArray Name="X_0" type="Float64" NumberOfComponents="1" format="ascii">
          1 1.5 2 
        </DataArray>
        <DataArray Name="X_1" type="Float64" NumberOfComponents="1" format="ascii">
          1 1.5 2 
        </DataArray>
        <DataArray Name="X_2" type="Float64" NumberOfComponents="1" format="ascii">

        </DataArray>
      </Coordinates>
    </Piece>
  </RectilinearGrid>
</VTKFile>