<?xml version="1.0"?>
<!--SPDX-FileCopyrightText: 2023 Dennis Gläser <dennis.glaeser@iws.uni-stuttgart.de>-->
<!--SPDX-License-Identifier: GPL-3.0-or-later-->

<VTKFile type="UnstructuredGrid" version="2.0" header_type="UInt64" byte_order="LittleEndian" compressor="vtkLZMADataCompressor">
  <UnstructuredGrid>
    <Piece NumberOfPoints="6" NumberOfCells="2">
      <PointData>
        <DataArray Name="pscalar" type="Float64" format="ascii" NumberOfComponents="1">
          0 8.41471 4.54649 0 9.09297 4.91295
        </DataArray>
      </PointData>
      <CellData>
        <DataArray Name="cscalar" type="Float64" format="ascii" NumberOfComponents="1">
          4.20735 8.75384
        </DataArray>
      </CellData>
      <Points>
        <DataArray Name="Coordinates" type="Float64" format="ascii" NumberOfComponents="3">
          0 0 0 1 0 0 1 1 0 0 1 0 2 0 0 2 1 0
        </DataArray>
      </Points>
      <Cells>
        <DataArray Name="connectivity" type="UInt64" format="ascii" NumberOfComponents="1">
          0 1 2 3 1 4 5 2
        </DataArray>
        <DataArray Name="offsets" type="UInt64" format="ascii" NumberOfComponents="1">
          4 8
        </DataArray>
        <DataArray Name="types" type="UInt8" format="ascii" NumberOfComponents="1">
          9 9
        </DataArray>
      </Cells>
    </Piece>
  </UnstructuredGrid>
</VTKFile>
