<?xml version="1.0"?>
<!--SPDX-FileCopyrightText: 2024 Dennis Gläser <dennis.a.glaeser@gmail.com>-->
<!--SPDX-License-Identifier: GPL-3.0-or-later-->
<VTKFile type="ImageData" version="1.0" byte_order="LittleEndian" header_type="UInt64">
  <ImageData WholeExtent="0 2 0 2 0 0"
             Origin="0 0 0"
             Spacing="0.5 0.5 0"
             Direction="0.7071067811865475 -0.7071067811865475 0 0.7071067811865475 0.7071067811865475 0 0 0 1">
  <Piece Extent="0 2 0 2 0 0">
    <PointData>
      <DataArray type="Float64" Name="pscalar" format="ascii">
        0 3.24818 4.93883 -3.24818 0 1.69065 -4.93883
        -1.69065 0
      </DataArray>
    </PointData>
    <CellData>
      <DataArray type="Float64" Name="cscalar" format="ascii">
        0 2.63222 -2.63222 0
      </DataArray>
    </CellData>
  </Piece>
  </ImageData>
</VTKFile>
